DOI,Composition,Alloy_or_not,Pt_or_not,Weight_ratio (wt%),Particle_size (nm),Surface_area (m2/g),N_doped (at%),pH,Current_density (mA/cm2),Overpotential (mV)
10.1021/acssuschemeng.8b06745,CoRu,1,0,22.4,30,257.2,2.3,0.3,10,116
10.1021/acssuschemeng.8b06745,CoRu,1,0,22.4,30,257.2,2.3,14,10,70
10.1021/acssuschemeng.8b06745,CoRu,1,0,15.4,30,257.2,1.8,0.3,100,300
10.1021/acssuschemeng.8b06745,CoRu,1,0,15.4,30,257.2,1.8,0.3,80,265
10.1021/acssuschemeng.8b06745,CoRu,1,0,15.4,30,257.2,1.8,14,100,247
10.1021/acssuschemeng.8b06745,CoRu,1,0,15.4,30,257.2,1.8,0.3,60,229
10.1021/acssuschemeng.8b06745,CoRu,1,0,15.4,30,257.2,1.8,14,80,210
10.1021/acssuschemeng.8b06745,CoRu,1,0,15.4,30,257.2,1.8,0.3,50,208
10.1021/acssuschemeng.8b06745,CoRu,1,0,15.4,30,257.2,1.8,0.3,40,186
10.1021/acssuschemeng.8b06745,CoRu,1,0,15.4,30,257.2,1.8,14,60,169
10.1021/acssuschemeng.8b06745,CoRu,1,0,15.4,30,257.2,1.8,14,50,148
10.1021/acssuschemeng.8b06745,CoRu,1,0,15.4,30,257.2,1.8,0.3,20,132
10.1021/acssuschemeng.8b06745,CoRu,1,0,15.4,30,257.2,1.8,14,40,122
10.1021/acssuschemeng.8b06745,CoRu,1,0,15.4,30,257.2,1.8,0.3,10,94
10.1021/acssuschemeng.8b06745,CoRu,1,0,15.4,30,257.2,1.8,14,20,68
10.1021/acssuschemeng.8b06745,CoRu,1,0,15.4,30,257.2,1.8,14,10,27
10.1021/acssuschemeng.8b06745,Co,0,0,18.3,30,257.2,1.65,0.3,40,649
10.1021/acssuschemeng.8b06745,Co,0,0,18.3,30,257.2,1.65,0.3,20,561
10.1021/acssuschemeng.8b06745,Co,0,0,18.3,30,257.2,1.65,0.3,10,484
10.1021/acssuschemeng.8b06745,Co,0,0,18.3,30,257.2,1.65,14,20,318
10.1021/acssuschemeng.8b06745,Co,0,0,18.3,30,257.2,1.65,14,10,273
10.1021/acsnano.8b01022,PtNiFe,1,1,7.91,7.3,658,1.77,14,80,391
10.1021/acsnano.8b01022,PtNiFe,1,1,7.91,7.3,658,1.77,14,60,317
10.1021/acsnano.8b01022,PtNiFe,1,1,7.91,7.3,658,1.77,14,50,276
10.1021/acsnano.8b01022,PtNiFe,1,1,7.91,7.3,658,1.77,14,40,233
10.1021/acsnano.8b01022,PtNiFe,1,1,7.91,7.3,658,1.77,14,20,136
10.1021/acsnano.8b01022,PtNiFe,1,1,7.91,7.3,658,1.77,14,10,83
10.1021/acsnano.8b01022,PtNiCu,1,1,7.64,7.3,681,1.8,14,150,360
10.1021/acsnano.8b01022,PtNiCu,1,1,7.64,7.3,681,1.8,14,100,260
10.1021/acsnano.8b01022,PtNiCu,1,1,7.64,7.3,681,1.8,14,80,216
10.1021/acsnano.8b01022,PtNiCu,1,1,7.64,7.3,681,1.8,14,60,172
10.1021/acsnano.8b01022,PtNiCu,1,1,7.64,7.3,681,1.8,14,50,150
10.1021/acsnano.8b01022,PtNiCu,1,1,7.64,7.3,681,1.8,14,40,125
10.1021/acsnano.8b01022,PtNiCu,1,1,7.64,7.3,681,1.8,14,20,68
10.1021/acsnano.8b01022,PtNiCu,1,1,7.64,7.3,681,1.8,14,10,38
10.1021/acsnano.8b01022,PtNiCuTb,1,1,6.36,7.3,702,1.89,14,100,394
10.1021/acsnano.8b01022,PtNiCuTb,1,1,6.36,7.3,702,1.89,14,80,346
10.1021/acsnano.8b01022,PtNiCuTb,1,1,6.36,7.3,702,1.89,14,60,294
10.1021/acsnano.8b01022,PtNiCuTb,1,1,6.36,7.3,702,1.89,14,50,264
10.1021/acsnano.8b01022,PtNiCuTb,1,1,6.36,7.3,702,1.89,14,40,230
10.1021/acsnano.8b01022,PtNiCuTb,1,1,6.36,7.3,702,1.89,14,20,146
10.1021/acsnano.8b01022,PtNiCuTb,1,1,6.36,7.3,702,1.89,14,10,82
10.1021/acsnano.8b01022,PtNi,1,1,14.2,7.2,588,1.48,14,60,391
10.1021/acsnano.8b01022,PtNi,1,1,14.2,7.2,588,1.48,14,50,348
10.1021/acsnano.8b01022,PtNi,1,1,14.2,7.2,588,1.48,14,40,304
10.1021/acsnano.8b01022,PtNi,1,1,14.2,7.2,588,1.48,14,20,190
10.1021/acsnano.8b01022,PtNi,1,1,14.2,7.2,588,1.48,14,10,118
10.1021/acsnano.8b01022,PtNiCo,1,1,10.74,7.2,717,1.9,14,100,367
10.1021/acsnano.8b01022,PtNiCo,1,1,10.74,7.2,717,1.9,14,80,306
10.1021/acsnano.8b01022,PtNiCo,1,1,10.74,7.2,717,1.9,14,60,246
10.1021/acsnano.8b01022,PtNiCo,1,1,10.74,7.2,717,1.9,14,50,215
10.1021/acsnano.8b01022,PtNiCo,1,1,10.74,7.2,717,1.9,14,40,184
10.1021/acsnano.8b01022,PtNiCo,1,1,10.74,7.2,717,1.9,14,20,112
10.1021/acsnano.8b01022,PtNiCo,1,1,10.74,7.2,717,1.9,14,10,69
10.1021/acsnano.8b01022,PtNiMn,1,1,9.87,7.2,730,1.96,14,60,397
10.1021/acsnano.8b01022,PtNiMn,1,1,9.87,7.2,730,1.96,14,50,344
10.1021/acsnano.8b01022,PtNiMn,1,1,9.87,7.2,730,1.96,14,40,288
10.1021/acsnano.8b01022,PtNiMn,1,1,9.87,7.2,730,1.96,14,20,161
10.1021/acsnano.8b01022,PtNiMn,1,1,9.87,7.2,730,1.96,14,10,90
10.1021/acsnano.8b01022,PtNiCuFe,1,1,6.16,7.2,680,1.82,14,150,386
10.1021/acsnano.8b01022,PtNiCuFe,1,1,6.16,7.2,680,1.82,14,100,280
10.1021/acsnano.8b01022,PtNiCuFe,1,1,6.16,7.2,680,1.82,14,80,232
10.1021/acsnano.8b01022,PtNiCuFe,1,1,6.16,7.2,680,1.82,14,60,182
10.1021/acsnano.8b01022,PtNiCuFe,1,1,6.16,7.2,680,1.82,14,50,157
10.1021/acsnano.8b01022,PtNiCuFe,1,1,6.16,7.2,680,1.82,14,40,131
10.1021/acsnano.8b01022,PtNiCuFe,1,1,6.16,7.2,680,1.82,14,20,73
10.1021/acsnano.8b01022,PtNiCuFe,1,1,6.16,7.2,680,1.82,14,10,40
10.1021/acsnano.8b01022,PtNiTb,1,1,11.44,7.1,476,1.74,14,80,431
10.1021/acsnano.8b01022,PtNiTb,1,1,11.44,7.1,476,1.74,14,60,367
10.1021/acsnano.8b01022,PtNiTb,1,1,11.44,7.1,476,1.74,14,50,333
10.1021/acsnano.8b01022,PtNiTb,1,1,11.44,7.1,476,1.74,14,40,293
10.1021/acsnano.8b01022,PtNiTb,1,1,11.44,7.1,476,1.74,14,20,194
10.1021/acsnano.8b01022,PtNiTb,1,1,11.44,7.1,476,1.74,14,10,126
10.1021/acsnano.8b01022,Pt,0,1,6.22,5.5,842,1.82,14,150,323
10.1021/acsnano.8b01022,Pt,0,1,6.22,5.5,842,1.82,14,100,235
10.1021/acsnano.8b01022,Pt,0,1,6.22,5.5,842,1.82,14,80,194
10.1021/acsnano.8b01022,Pt,0,1,6.22,5.5,842,1.82,14,60,155
10.1021/acsnano.8b01022,Pt,0,1,6.22,5.5,842,1.82,14,50,133
10.1021/acsnano.8b01022,Pt,0,1,6.22,5.5,842,1.82,14,40,111
10.1021/acsnano.8b01022,Pt,0,1,6.22,5.5,842,1.82,14,20,60
10.1021/acsnano.8b01022,Pt,0,1,6.22,5.5,842,1.82,14,10,30
10.1021/acsnano.8b01022,Ni,0,0,4.15,7.5,750,6.9,14,60,450
10.1021/acsnano.8b01022,Ni,0,0,4.15,7.5,750,6.9,14,50,428
10.1021/acsnano.8b01022,Ni,0,0,4.15,7.5,750,6.9,14,40,404
10.1021/acsnano.8b01022,Ni,0,0,4.15,7.5,750,6.9,14,20,345
10.1021/acsnano.8b01022,Ni,0,0,4.15,7.5,750,6.9,14,10,298
10.1021/acscatal.9b02305,Pt,0,1,20,3.32,200.1,0,0.3,10,42.03
10.1021/acscatal.9b02305,Pt,0,1,20,3.32,200.1,0,0.3,20,51
10.1021/acscatal.9b02305,Pt,0,1,20,3.32,200.1,0,0.3,40,63
10.1021/acscatal.9b02305,Pt,0,1,20,3.32,200.1,0,0.3,50,67
10.1021/acscatal.9b02305,Pt,0,1,20,3.32,200.1,0,0.3,100,87.4
10.1021/acscatal.9b02305,Pt,0,1,2,0.61,282,12.08,0.3,10,35.28
10.1021/acscatal.9b02305,Pt,0,1,2,0.61,282,12.08,0.3,20,43
10.1021/acscatal.9b02305,Pt,0,1,2,0.61,282,12.08,0.3,40,50
10.1021/acscatal.9b02305,Pt,0,1,2,0.61,282,12.08,0.3,50,54
10.1021/acscatal.9b02305,Pt,0,1,2,0.61,282,12.08,0.3,100,69
10.1021/acscatal.9b02305,Pt,0,1,1,0.54,282,12.08,0.3,10,47.2
10.1021/acscatal.9b02305,Pt,0,1,1,0.54,282,12.08,0.3,20,56
10.1021/acscatal.9b02305,Pt,0,1,1,0.54,282,12.08,0.3,40,68
10.1021/acscatal.9b02305,Pt,0,1,1,0.54,282,12.08,0.3,50,73
10.1021/acscatal.9b02305,Pt,0,1,1,0.54,282,12.08,0.3,100,100
10.1021/acscatal.9b02305,PtMoO,0,1,0.5,0.35,282,12.08,0.3,10,66.1
10.1021/acscatal.9b02305,PtMoO,0,1,0.5,0.35,282,12.08,0.3,20,98
10.1021/acscatal.9b02305,PtMoO,0,1,0.5,0.35,282,12.08,0.3,40,146
10.1021/acscatal.9b02305,PtMoO,0,1,0.5,0.35,282,12.08,0.3,50,164
10.1021/acscatal.9b02305,Pt,0,1,0.25,0.35,282,12.08,0.3,10,95.75
10.1021/acscatal.9b02305,Pt,0,1,0.25,0.35,282,12.08,0.3,20,141
10.1021/acscatal.7b02246,Pt,0,1,5.4,0.35,122,0,0,10,26
10.1021/acscatal.7b02246,Pt,0,1,5.4,0.35,122,0,0,20,38
10.1021/acscatal.7b02246,Pt,0,1,5.4,0.35,122,0,0,40,61
10.1021/acscatal.7b02246,Pt,0,1,5.4,0.35,122,0,0,50,71
10.1021/acscatal.7b02246,Pt,0,1,5.4,0.35,122,0,0,100,112
10.1021/acsami.9b20781,Pt,0,1,20.3,4.24,36.1,0,0.3,10,18.2
10.1021/acsami.9b20781,Pt,0,1,20.3,4.24,36.1,0,0.3,20,22
10.1021/acsami.9b20781,Pt,0,1,20.3,4.24,36.1,0,14,10,63
10.1021/acsami.9b20781,Pt,0,1,20.3,4.24,36.1,0,14,20,97
10.1021/acsami.9b20781,Pt,0,1,17.2,3.05,55.8,0,0.3,10,14.3
10.1021/acsami.9b20781,Pt,0,1,17.2,3.05,55.8,0,0.3,20,21
10.1021/acsami.9b20781,Pt,0,1,17.2,3.05,55.8,0,14,10,37.2
10.1021/acsami.9b20781,Pt,0,1,17.2,3.05,55.8,0,14,20,72
10.1021/acsami.9b20781,Pt,0,1,15.7,2.93,46.7,0,0.3,10,16.5
10.1021/acsami.9b20781,Pt,0,1,15.7,2.93,46.7,0,0.3,20,17
10.1021/acsami.9b20781,Pt,0,1,15.7,2.93,46.7,0,14,10,48.4
10.1021/acsami.9b20781,Pt,0,1,15.7,2.93,46.7,0,14,20,56
10.1021/acsami.8b20209,Pt,0,1,11.24,10,96.5,3.4,0.3,10,32
10.1021/acsami.8b20209,Pt,0,1,11.24,10,96.5,3.4,0.3,20,36.7
10.1021/acsami.8b20209,Pt,0,1,11.24,10,96.5,3.4,0.3,40,42.5
10.1021/acsami.8b20209,Pt,0,1,11.24,10,96.5,3.4,0.3,50,43.3
10.1021/acsami.8b20209,Pt,0,1,11.24,10,96.5,3.4,0.3,100,54.3
10.1021/acsami.8b20209,Pt,0,1,11.24,10,96.5,3.4,0.3,150,66
10.1021/acsami.8b20209,Pt,0,1,11.24,10,96.5,3.4,14,10,64
10.1021/acsami.8b20209,Pt,0,1,11.24,10,96.5,3.4,14,20,96
10.1021/acsami.8b20209,Pt,0,1,11.24,10,96.5,3.4,14,40,144
10.1021/acsami.8b20209,Pt,0,1,11.24,10,96.5,3.4,14,50,166
10.1021/acsami.8b20209,Pt,0,1,11.24,10,96.5,3.4,7.4,10,34.6
10.1021/acsami.8b20209,Pt,0,1,11.24,10,96.5,3.4,7.4,20,80
10.1021/acsami.8b20209,Pt,0,1,11.24,10,96.5,3.4,7.4,40,158
10.1021/acsami.8b20209,Pt,0,1,11.24,10,96.5,3.4,7.4,50,190
10.1021/acsami.8b20209,Pt,0,1,9.5,5,109.75,4.5,0.3,10,32
10.1021/acsami.8b20209,Pt,0,1,9.5,5,109.75,4.5,0.3,20,37.5
10.1021/acsami.8b20209,Pt,0,1,9.5,5,109.75,4.5,0.3,40,49
10.1021/acsami.8b20209,Pt,0,1,9.5,5,109.75,4.5,0.3,50,57.2
10.1021/acsami.8b20209,Pt,0,1,9.5,5,109.75,4.5,0.3,100,99.8
10.1021/acsami.8b20209,Pt,0,1,9.5,5,109.75,4.5,0.3,150,141
10.1021/acsami.8b20209,Pt,0,1,9.5,5,109.75,4.5,14,10,62
10.1021/acsami.8b20209,Pt,0,1,9.5,5,109.75,4.5,14,20,97
10.1021/acsami.8b20209,Pt,0,1,9.5,5,109.75,4.5,14,40,145
10.1021/acsami.8b20209,Pt,0,1,9.5,5,109.75,4.5,14,50,165
10.1021/acsami.8b20209,Pt,0,1,9.5,5,109.75,4.5,14,100,234
10.1021/acsami.8b20209,Pt,0,1,9.5,5,109.75,4.5,7.4,10,20
10.1021/acsami.8b20209,Pt,0,1,9.5,5,109.75,4.5,7.4,20,58
10.1021/acsami.8b20209,Pt,0,1,9.5,5,109.75,4.5,7.4,40,120
10.1021/acsami.8b20209,Pt,0,1,9.5,5,109.75,4.5,7.4,50,149
10.1021/acsami.8b20209,Pt,0,1,7.49,5,128.4,3.5,0.3,10,27
10.1021/acsami.8b20209,Pt,0,1,7.49,5,128.4,3.5,0.3,20,31
10.1021/acsami.8b20209,Pt,0,1,7.49,5,128.4,3.5,0.3,40,37.6
10.1021/acsami.8b20209,Pt,0,1,7.49,5,128.4,3.5,0.3,50,39.4
10.1021/acsami.8b20209,Pt,0,1,7.49,5,128.4,3.5,0.3,100,47.9
10.1021/acsami.8b20209,Pt,0,1,7.49,5,128.4,3.5,0.3,150,51.5
10.1021/acsami.8b20209,Pt,0,1,7.49,5,128.4,3.5,0.3,200,57
10.1021/acsami.8b20209,Pt,0,1,7.49,5,128.4,3.5,14,10,47
10.1021/acsami.8b20209,Pt,0,1,7.49,5,128.4,3.5,14,20,73
10.1021/acsami.8b20209,Pt,0,1,7.49,5,128.4,3.5,14,40,106
10.1021/acsami.8b20209,Pt,0,1,7.49,5,128.4,3.5,14,50,121
10.1021/acsami.8b20209,Pt,0,1,7.49,5,128.4,3.5,14,100,173
10.1021/acsami.8b20209,Pt,0,1,7.49,5,128.4,3.5,7.4,10,25
10.1021/acsami.8b20209,Pt,0,1,7.49,5,128.4,3.5,7.4,20,26
10.1021/acsami.8b20209,Pt,0,1,7.49,5,128.4,3.5,7.4,40,52
10.1021/acsami.8b20209,Pt,0,1,7.49,5,128.4,3.5,7.4,50,66
10.1021/acsami.8b20209,Pt,0,1,3.75,5,136.6,3.7,0.3,10,29
10.1021/acsami.8b20209,Pt,0,1,3.75,5,136.6,3.7,0.3,20,34.8
10.1021/acsami.8b20209,Pt,0,1,3.75,5,136.6,3.7,0.3,40,41.8
10.1021/acsami.8b20209,Pt,0,1,3.75,5,136.6,3.7,0.3,50,44.4
10.1021/acsami.8b20209,Pt,0,1,3.75,5,136.6,3.7,0.3,100,56.2
10.1021/acsami.8b20209,Pt,0,1,3.75,5,136.6,3.7,0.3,150,63.5
10.1021/acsami.8b20209,Pt,0,1,3.75,5,136.6,3.7,14,10,55
10.1021/acsami.8b20209,Pt,0,1,3.75,5,136.6,3.7,14,20,85.5
10.1021/acsami.8b20209,Pt,0,1,3.75,5,136.6,3.7,14,40,129.5
10.1021/acsami.8b20209,Pt,0,1,3.75,5,136.6,3.7,14,50,147
10.1021/acsami.8b20209,Pt,0,1,3.75,5,136.6,3.7,14,100,214
10.1021/acsami.8b20209,Pt,0,1,3.75,5,136.6,3.7,7.4,10,62
10.1021/acsami.8b20209,Pt,0,1,3.75,5,136.6,3.7,7.4,20,93.4
10.1021/acsami.8b20209,Pt,0,1,3.75,5,136.6,3.7,7.4,40,148
10.1021/acsami.8b20209,Pt,0,1,3.75,5,136.6,3.7,7.4,50,166
10.1021/acsami.8b20209,0,0,0,0,0,160.63,5,0.3,10,660
10.1021/acsami.8b20209,0,0,0,0,0,160.63,5,0.3,20,703
10.1021/acsami.8b20209,0,0,0,0,0,160.63,5,0.3,40,755
10.1021/acsami.8b20209,0,0,0,0,0,160.63,5,14,10,766
10.1021/acsami.8b20209,0,0,0,0,0,160.63,5,7.4,10,694
10.1021/acsami.8b00240,0,0,0,0,0,507,3.65,14,20,456
10.1021/acsami.8b00240,0,0,0,0,0,507,3.65,14,10,392
10.1021/acsami.6b03924,Pt,0,1,31.4,5,485,4.52,0.3,10,50
10.1021/acsami.6b03924,Pt,0,1,31.4,5,485,4.52,0.3,20,74
10.1021/acsami.6b03924,Pt,0,1,20.1,5,509,3.05,0.3,10,66
10.1021/acsami.6b03924,Pt,0,1,20.1,5,509,3.05,0.3,20,92
10.1021/acsami.6b03924,Pt,0,1,13.6,5,491,7.22,0.3,10,47
10.1021/acsami.6b03924,Pt,0,1,13.6,5,491,7.22,0.3,20,68.5
10.1021/acsami.6b03924,Pt,0,1,0.13,5,461,11.62,0.3,10,210
10.1021/acsami.6b03924,Pt,0,1,0.13,5,461,11.62,0.3,20,267
10.1021/acsami.6b03924,0,0,0,0,0,461,11.62,0.3,10,582
10.1021/acsami.6b03924,0,0,0,0,0,461,11.62,0.3,20,661
10.1021/acsami.6b03924,0,0,0,0,0,485,4.52,0.3,10,626
10.1021/acsami.6b03924,0,0,0,0,0,485,4.52,0.3,20,686
10.1021/acsami.6b03924,0,0,0,0,0,491,7.22,0.3,10,513
10.1021/acsami.6b03924,0,0,0,0,0,491,7.22,0.3,20,598
10.1021/acsami.6b03924,0,0,0,0,0,509,3.05,0.3,10,700
10.1021/acsami.6b03924,0,0,0,0,0,509,3.05,0.3,20,759
10.1021/acsami.1c06032,CoW,1,0,43.86,20,146.3,9.36,0.3,10,248.9
10.1021/acsami.1c06032,NiFeCoW,1,0,40.93,20,94.8,5.84,0.3,10,127.8
10.1021/acsami.1c06032,NiFeCoW,1,0,35.26,20,162.6,9.17,0.3,10,151.2
10.1021/acsami.1c06032,NiFe,1,0,24.18,20,227.2,10.15,0.3,10,272.9
10.1021/acsami.0c13836,NiFeO,0,0,10.74,10,204.2,0,14,100,269
10.1021/acsami.0c13836,NiFeO,0,0,10.74,10,204.2,0,14,80,246
10.1021/acsami.0c13836,NiFeO,0,0,10.74,10,204.2,0,14,60,218
10.1021/acsami.0c13836,NiFeO,0,0,10.74,10,204.2,0,14,50,205
10.1021/acsami.0c13836,NiFeO,0,0,10.74,10,204.2,0,14,40,188
10.1021/acsami.0c13836,NiFeO,0,0,10.74,10,204.2,0,14,20,152
10.1021/acsami.0c13836,NiFeO,0,0,10.74,10,204.2,0,14,10,128
10.1021/acs.jpcc.7b08283,PtMoO,0,1,3,0.35,28,0,0.3,10,69
10.1021/acs.jpcc.7b08283,PtMoO,0,1,3,0.35,28,0,0.3,20,95.7
10.1021/acs.jpcc.7b08283,PtMoO,0,1,3,0.35,28,0,0.3,40,139
10.1021/acs.jpcc.7b08283,PtMoO,0,1,3,0.35,28,0,0.3,50,157
10.1021/acs.jpcc.7b08283,PtMoO,0,1,1.5,0.35,28,0,0.3,10,66
10.1021/acs.jpcc.7b08283,PtMoO,0,1,1.5,0.35,28,0,0.3,20,90
10.1021/acs.jpcc.7b08283,PtMoO,0,1,1.5,0.35,28,0,0.3,40,129
10.1021/acs.jpcc.7b08283,PtMoO,0,1,1.5,0.35,28,0,0.3,50,146.9
10.1021/acs.jpcc.7b08283,PtMoO,0,1,0.5,0.35,28,0,0.3,10,60
10.1021/acs.jpcc.7b08283,PtMoO,0,1,0.5,0.35,28,0,0.3,20,84
10.1021/acs.jpcc.7b08283,PtMoO,0,1,0.5,0.35,28,0,0.3,40,125
10.1021/acs.jpcc.7b08283,PtMoO,0,1,0.5,0.35,28,0,0.3,50,143.5
10.1021/acs.jpcc.7b08283,PtMoO,0,1,0.1,0.35,28,0,0.3,10,61.3
10.1021/acs.jpcc.7b08283,PtMoO,0,1,0.1,0.35,28,0,0.3,20,87
10.1021/acs.jpcc.7b08283,PtMoO,0,1,0.1,0.35,28,0,0.3,40,130
10.1021/acs.jpcc.7b08283,PtMoO,0,1,0.1,0.35,28,0,0.3,50,149
10.1021/acs.jpcc.7b01447,Pt,0,1,1.5,3,1129.26,12.4,0.3,10,33.9
10.1021/acs.jpcc.7b01447,Pt,0,1,1.5,3,1129.26,12.4,0.3,60,50
10.1021/acs.jpcc.7b01447,Pt,0,1,0.95,3,1020.36,11.2,0.3,10,15.9
10.1021/acs.jpcc.7b01447,Pt,0,1,0.95,3,1020.36,11.2,0.3,60,85
10.1021/acs.jpcc.7b01447,Pt,0,1,0.8,3,587.3,9,0.3,10,16
10.1021/acs.jpcc.7b01447,Pt,0,1,0.8,3,587.3,9,0.3,60,94
10.1021/acs.jpcc.7b01447,Pt,0,1,0.6,3,248.52,8.5,0.3,10,26.4
10.1021/acs.jpcc.7b01447,Pt,0,1,0.6,3,248.52,8.5,0.3,60,123
10.1021/acs.jpcc.0c01043,PtFe,1,1,1.5,0.35,1247.81,4.8,0.3,10,188
10.1021/acs.jpcc.0c01043,PtFe,1,1,1.5,0.35,1247.81,4.8,0.3,20,262
10.1021/acs.jpcc.0c01043,PtFe,1,1,1.5,0.35,900.21,4.8,0.3,10,332
10.1021/acs.jpcc.0c01043,PtFe,1,1,1.5,0.35,900.21,4.8,0.3,20,452
10.1021/acs.jpcc.0c01043,PtFe,1,1,1.5,0.35,879.21,4.8,0.3,10,209
10.1021/acs.jpcc.0c01043,PtFe,1,1,1.5,0.35,879.21,4.8,0.3,20,315
10.1021/acs.jpcc.0c01043,PtFe,1,1,1.5,0.35,744.58,4.8,0.3,10,189
10.1021/acs.jpcc.0c01043,PtFe,1,1,1.5,0.35,744.58,4.8,0.3,20,230
10.1021/acs.jpcc.0c01043,PtFe,1,1,1.5,0.35,586.82,4.8,0.3,10,51
10.1021/acs.jpcc.0c01043,PtFe,1,1,1.5,0.35,586.82,4.8,0.3,20,93
10.1016/j.nanoen.2019.06.045,Pt,0,1,0.452,1,86.67,1.4,0.3,10,49.5
10.1016/j.nanoen.2019.06.045,Pt,0,1,0.452,1,86.67,1.4,0.3,20,61
10.1016/j.nanoen.2019.06.045,Pt,0,1,0.452,1,86.67,1.4,0.3,40,76
10.1016/j.nanoen.2019.06.045,Pt,0,1,0.452,1,86.67,1.4,0.3,50,81
10.1016/j.nanoen.2019.06.045,Pt,0,1,0.452,1,86.67,1.4,0.3,100,105
10.1016/j.nanoen.2019.06.045,Pt,0,1,0.323,0.35,86.51,0.68,0.3,10,43.9
10.1016/j.nanoen.2019.06.045,Pt,0,1,0.323,0.35,86.51,0.68,0.3,20,52
10.1016/j.nanoen.2019.06.045,Pt,0,1,0.323,0.35,86.51,0.68,0.3,40,64
10.1016/j.nanoen.2019.06.045,Pt,0,1,0.323,0.35,86.51,0.68,0.3,50,69.5
10.1016/j.nanoen.2019.06.045,Pt,0,1,0.323,0.35,86.51,0.68,0.3,100,90.5
10.1016/j.nanoen.2017.07.032,Pt,0,1,3.6,3.2,516,12.4,1,10,57
10.1016/j.nanoen.2017.07.032,Pt,0,1,3.6,3.2,516,12.4,1,20,103
10.1016/j.nanoen.2017.07.032,Pt,0,1,3.6,3.2,516,12.4,1,40,192
10.1016/j.nanoen.2017.07.032,Pt,0,1,3.6,3.2,516,12.4,1,50,236
10.1016/j.nanoen.2017.07.032,Pt,0,1,3.6,3.2,516,12.4,1,60,278
10.1016/j.jssc.2018.03.030,PtCo,1,1,24.83,7.5,29,0,13,10,370
10.1016/j.jssc.2018.03.030,PtCo,1,1,19.65,7.5,34.4,0,13,10,280
10.1016/j.jssc.2018.03.030,Pt,0,1,46,3.5,36,0,13,10,470
10.1016/j.jpowsour.2018.09.006,PtNi,1,1,10.11,6,347,4.3,14,100,220
10.1016/j.jpowsour.2018.09.006,PtNi,1,1,10.11,6,347,4.3,14,80,202
10.1016/j.jpowsour.2018.09.006,PtNi,1,1,10.11,6,347,4.3,14,60,177
10.1016/j.jpowsour.2018.09.006,PtNi,1,1,10.11,6,347,4.3,14,50,159
10.1016/j.jpowsour.2018.09.006,PtNi,1,1,10.11,6,347,4.3,14,40,139
10.1016/j.jpowsour.2018.09.006,PtNi,1,1,10.11,6,347,4.3,14,20,79
10.1016/j.jpowsour.2018.09.006,PtNi,1,1,10.11,6,347,4.3,14,10,42
10.1016/j.jelechem.2018.05.013,PtPd,1,1,6.95,2.5,2809.7,37.69,0.3,10,29
10.1016/j.jelechem.2018.05.013,PtPd,1,1,6.95,2.5,2809.7,37.69,0.3,20,38
10.1016/j.jelechem.2018.05.013,PtPd,1,1,6.95,2.5,2809.7,37.69,0.3,40,45
10.1016/j.jelechem.2018.05.013,PtPd,1,1,6.95,2.5,2809.7,37.69,0.3,50,48
10.1016/j.jelechem.2018.05.013,PtPd,1,1,6.95,2.5,2809.7,37.69,0.3,60,50.5
10.1016/j.jelechem.2018.05.013,PtPd,1,1,6.95,2.5,2809.7,37.69,14,10,46
10.1016/j.jelechem.2018.05.013,PtPd,1,1,6.95,2.5,2809.7,37.69,14,20,83
10.1016/j.jelechem.2018.05.013,PtPd,1,1,6.95,2.5,2809.7,37.69,14,40,120
10.1016/j.jelechem.2018.05.013,PtPd,1,1,6.95,2.5,2809.7,37.69,14,50,134
10.1016/j.jelechem.2018.05.013,Pt,0,1,10,3.5,254,0,0.3,10,41
10.1016/j.jelechem.2018.05.013,Pt,0,1,10,3.5,254,0,0.3,20,49
10.1016/j.jelechem.2018.05.013,Pt,0,1,10,3.5,254,0,0.3,40,57.6
10.1016/j.jelechem.2018.05.013,Pt,0,1,10,3.5,254,0,0.3,50,60.4
10.1016/j.jelechem.2018.05.013,Pt,0,1,10,3.5,254,0,0.3,60,64.7
10.1016/j.jelechem.2018.05.013,Pt,0,1,10,3.5,254,0,14,10,64
10.1016/j.jelechem.2018.05.013,Pt,0,1,10,3.5,254,0,14,20,161
10.1016/j.jelechem.2018.05.013,Pt,0,1,14,2.5,2809.7,37.69,0.3,10,58
10.1016/j.jelechem.2018.05.013,Pt,0,1,14,2.5,2809.7,37.69,0.3,20,69
10.1016/j.jelechem.2018.05.013,Pt,0,1,14,2.5,2809.7,37.69,0.3,40,83
10.1016/j.jelechem.2018.05.013,Pt,0,1,14,2.5,2809.7,37.69,0.3,50,90
10.1016/j.jelechem.2018.05.013,Pt,0,1,14,2.5,2809.7,37.69,0.3,60,96
10.1016/j.jelechem.2018.05.013,Pt,0,1,14,2.5,2809.7,37.69,14,10,50
10.1016/j.jelechem.2018.05.013,Pt,0,1,14,2.5,2809.7,37.69,14,20,93
10.1016/j.jelechem.2018.05.013,Pt,0,1,14,2.5,2809.7,37.69,14,40,166
10.1016/j.jelechem.2018.05.013,Pt,0,1,14,2.5,2809.7,37.69,14,50,192
10.1016/j.jechem.2021.04.065,PtSr,1,1,11.52,2.1,844.1,27,0.3,80,60
10.1016/j.jechem.2021.04.065,PtSr,1,1,11.52,2.1,844.1,27,0.3,60,52
10.1016/j.jechem.2021.04.065,PtSr,1,1,11.52,2.1,844.1,27,0.3,50,48
10.1016/j.jechem.2021.04.065,PtSr,1,1,11.52,2.1,844.1,27,0.3,40,45
10.1016/j.jechem.2021.04.065,PtSr,1,1,11.52,2.1,844.1,27,0.3,20,35.5
10.1016/j.jechem.2021.04.065,PtSr,1,1,11.52,2.1,844.1,27,0.3,10,27
10.1016/j.jechem.2021.04.065,Pt,0,1,9.58,2.1,839.24,27,0.3,80,108
10.1016/j.jechem.2021.04.065,Pt,0,1,9.58,2.1,839.24,27,0.3,60,90
10.1016/j.jechem.2021.04.065,Pt,0,1,9.58,2.1,839.24,27,0.3,50,80
10.1016/j.jechem.2021.04.065,Pt,0,1,9.58,2.1,839.24,27,0.3,40,71
10.1016/j.jechem.2021.04.065,Pt,0,1,9.58,2.1,839.24,27,0.3,20,50
10.1016/j.jechem.2021.04.065,Pt,0,1,9.58,2.1,839.24,27,0.3,10,38
10.1016/j.jcis.2022.01.001,CoNiRu,1,0,11.23,28,169.47,0,14,100,259
10.1016/j.jcis.2022.01.001,CoNiRu,1,0,11.23,28,169.47,0,14,80,234
10.1016/j.jcis.2022.01.001,CoNiRu,1,0,11.23,28,169.47,0,14,60,204
10.1016/j.jcis.2022.01.001,CoNiRu,1,0,11.23,28,169.47,0,14,50,186
10.1016/j.jcis.2022.01.001,CoNiRu,1,0,11.23,28,169.47,0,14,40,167
10.1016/j.jcis.2022.01.001,CoNiRu,1,0,11.23,28,169.47,0,14,20,120
10.1016/j.jcis.2022.01.001,CoNiRu,1,0,11.23,28,169.47,0,14,10,78